 Gaussian 09, Revision E.01,
 Gaussian 09:  ES64L-G09RevE.01 30-Nov-2015

 ---------------------------------
 # MP2/aug-cc-pVDZ fchk units=bohr
 ---------------------------------

 ----------------
 mp2 single point
 ----------------
 Symbolic Z-matrix:
 Charge =  0 Multiplicity = 1

                         Standard orientation:
 ---------------------------------------------------------------------
 Center     Atomic      Atomic             Coordinates (Angstroms)
 Number     Number       Type             X           Y           Z
 ---------------------------------------------------------------------
      1          6           0       -0.371451   -0.222251   -0.388020
      2          1           0        0.462719    0.418165   -0.093186
      3          1           0       -1.146847    0.384497   -0.860798
      4          1           0       -0.782759   -0.714396    0.496017
      5          1           0       -0.018918   -0.977270   -1.094113
      6          2           0        1.857256    1.111255    1.940099
 ---------------------------------------------------------------------

 SCF Done:  E(RHF) =  -43.0550176827     A.U. after    8 cycles
 E2 =    -0.1952839161D+00 EUMP2 =    -0.43250301598851D+02

 The electronic state is 1-A.
 Alpha  occ. eigenvalues --  -11.21641  -0.94234  -0.91789  -0.54285  -0.54283
 Alpha  occ. eigenvalues --   -0.54279
 Alpha virt. eigenvalues --    0.03943   0.06294   0.06375   0.07141   0.14462
 Alpha virt. eigenvalues --    0.14540   0.15028   0.17370   0.23001   0.29594
 Alpha virt. eigenvalues --    0.29975   0.30047   0.30517   0.32606   0.41215

 Mulliken charges:
               1
     1  C    0.566533
     2  H   -0.139263
     3  H   -0.136435
     4  H   -0.153949
     5  H   -0.137821
     6  He   0.000935
 Sum of Mulliken charges =  -0.00000

 Dipole moment (field-independent basis, Debye):
    X=              0.0106    Y=              0.0059    Z=              0.0125  Tot=              0.0174
 Quadrupole moment (field-independent basis, Debye-Ang):
   XX=             -9.5099   YY=             -9.5146   ZZ=             -9.5039
   XY=              0.0025   XZ=              0.0095   YZ=              0.0053

 Normal termination of Gaussian 09 at Mon May 10 13:26:20 2021.
